LAMMPS FCC Model for CoCuFeNiPd

  8788 atoms

 5 atom types

-1.2530497314545641e+00 4.6253049731452897e+01 xlo xhi
-1.2551195373430890e+00 4.6255119537342502e+01 ylo yhi
-1.2485814740622672e+00 4.6248581474063855e+01 zlo zhi

Atoms
id type x y z
1 2 -0.307362 -0.369301 -0.354884 
2 4 1.4822 -0.38864 1.57532 
3 3 -0.30522 1.53765 1.54849 
4 5 1.50402 1.46516 -0.276767 
5 5 3.40764 -0.356526 -0.286163 
7 2 3.37378 1.46517 1.53932 
53 1 -0.334022 3.31848 -0.266596 
54 4 1.55614 3.34652 1.49721 
57 4 3.34463 3.32831 -0.345396 
677 3 -0.273497 -0.367184 3.31902 
680 2 1.55259 1.48933 3.27076 
681 3 3.33142 -0.410958 3.27519 
729 1 -0.270371 3.32251 3.2821 
733 3 3.32253 3.32961 3.34089 
678 4 1.58022 -0.393968 5.07442 
679 5 -0.25213 1.47408 5.1041 
683 2 3.32787 1.43731 5.10726 
730 3 1.57443 3.33321 5.1187 
1353 2 -0.296819 -0.39406 7.01075 
1354 2 1.57425 -0.340288 8.8239 
1355 3 -0.269736 1.49388 8.76811 
1356 2 1.54763 1.42164 6.97704 
1357 1 3.36649 -0.3197 6.9591 
1359 4 3.35858 1.45255 8.80465 
1405 3 -0.206147 3.29739 6.98338 
1406 3 1.58616 3.22928 8.76986 
1409 4 3.30163 3.22312 6.93304 
2081 5 -0.249872 3.24836 10.6103 
2029 5 -0.276444 -0.329575 10.6136 
2030 3 1.54105 -0.367014 12.4225 
2031 1 -0.255763 1.44757 12.4863 
2032 4 1.5999 1.46309 10.6323 
2033 4 3.35265 -0.355584 10.6429 
2035 3 3.32652 1.45733 12.4008 
2761 5 3.30871 3.25717 14.2636 
2082 3 1.5132 3.28379 12.463 
2085 4 3.30606 3.25868 10.6553 
2705 1 -0.256373 -0.371227 14.2237 
2706 1 1.49804 -0.343371 16.0333 
2707 2 -0.299698 1.45065 16.0904 
2708 1 1.46955 1.45493 14.2391 
2709 5 3.36518 -0.320803 14.2435 
2711 2 3.34492 1.46039 16.1392 
2757 1 -0.270781 3.29906 14.2959 
2758 2 1.47003 3.29935 16.142 
3381 2 -0.378527 -0.353075 17.9231 
3382 4 1.44785 -0.395586 19.8409 
3383 1 -0.379637 1.43626 19.7851 
3384 5 1.47363 1.43056 17.9588 
3385 5 3.40976 -0.366795 17.9839 
3387 2 3.41747 1.46296 19.8018 
3433 4 -0.398607 3.29306 17.9408 
3434 5 1.4664 3.2713 19.8051 
3437 2 3.39255 3.28878 18.0034 
4057 3 -0.319666 -0.446106 21.5886 
4060 4 1.44393 1.39974 21.6119 
4061 5 3.35424 -0.355308 21.6229 
4109 1 -0.363377 3.27254 21.6285 
4113 2 3.3342 3.202 21.6172 
4058 4 1.51244 -0.416176 23.4958 
4059 5 -0.314264 1.40361 23.4901 
4063 3 3.29023 1.39342 23.4384 
4110 4 1.48924 3.2513 23.3809 
4733 3 -0.373022 -0.421358 25.336 
4734 5 1.53554 -0.418426 27.0522 
4735 3 -0.313663 1.45269 26.9885 
4736 1 1.50459 1.39853 25.2544 
4737 4 3.36674 -0.413111 25.2079 
4739 2 3.33339 1.39303 27.1214 
4785 1 -0.273641 3.28644 25.2306 
4786 4 1.43876 3.24044 27.0723 
4789 5 3.25745 3.23917 25.2338 
5409 5 -0.346503 -0.421632 28.8486 
5410 5 1.46192 -0.407759 30.7145 
5411 1 -0.317988 1.53363 30.776 
5412 4 1.44258 1.51008 28.8859 
5413 4 3.34707 -0.42264 28.9024 
5415 5 3.29254 1.44892 30.735 
5461 1 -0.331558 3.24167 28.9125 
5462 4 1.43109 3.26421 30.8054 
5465 2 3.30259 3.29018 28.9416 
6085 2 -0.315014 -0.390004 32.5745 
6088 3 1.43298 1.47402 32.6085 
6089 4 3.25254 -0.377853 32.5867 
6137 1 -0.357474 3.2969 32.5905 
6141 2 3.2903 3.25188 32.575 
6087 2 -0.376098 1.46693 34.3861 
6091 3 3.26103 1.46848 34.3399 
6138 4 1.43429 3.27354 34.35 
6086 4 1.49989 -0.379404 34.3807 
7493 3 3.32656 3.24113 39.8065 
7489 3 -0.343735 3.24505 39.7679 
7441 5 3.28365 -0.353752 39.804 
6761 3 -0.33756 -0.336771 36.2146 
6762 4 1.45574 -0.351271 37.9653 
6763 4 -0.356502 1.43846 38.0106 
6764 2 1.47541 1.44569 36.147 
6765 3 3.29461 -0.373621 36.1757 
6767 2 3.2839 1.47702 37.9676 
6813 2 -0.392232 3.26366 36.2084 
6814 2 1.45865 3.23892 37.9855 
6817 4 3.32661 3.2513 36.1067 
7437 1 -0.30438 -0.325173 39.7569 
7440 1 1.46578 1.47435 39.8035 
7438 1 1.50432 -0.349702 41.619 
7439 3 -0.27409 1.43607 41.543 
7443 4 3.30749 1.45706 41.6443 
7490 2 1.52364 3.268 41.6048 
8113 5 -0.293071 -0.348536 43.5271 
8114 4 1.50671 -0.346108 45.3434 
8115 4 -0.345166 1.48823 45.406 
8116 2 1.51598 1.45024 43.5022 
8117 5 3.34259 -0.335051 43.4859 
8119 1 3.38773 1.46461 45.3525 
8165 5 -0.256886 3.30687 43.4634 
8166 5 1.51511 3.32774 45.3717 
8169 2 3.30057 3.25407 43.5209 
55 5 -0.302883 5.16999 1.52051 
56 1 1.51197 5.16412 -0.310038 
59 3 3.26773 5.14603 1.45359 
105 4 -0.276828 7.00217 -0.302884 
106 1 1.52573 6.98903 1.49119 
107 1 -0.320029 8.79286 1.50104 
108 4 1.45609 8.76861 -0.284222 
109 4 3.25096 6.9481 -0.302738 
111 1 3.32697 8.79169 1.46275 
732 4 1.58833 5.15371 3.29046 
781 1 -0.311899 6.99826 3.29393 
784 5 1.51082 8.81284 3.31439 
785 1 3.32487 6.9648 3.2721 
157 3 -0.311945 10.5986 -0.314695 
731 5 -0.249974 5.16286 5.11208 
735 3 3.31622 5.11328 5.1154 
782 2 1.58635 6.96739 5.15858 
783 2 -0.309283 8.81861 5.14345 
787 2 3.39086 8.83044 5.11466 
1407 5 -0.196225 5.16894 8.75394 
1408 3 1.619 5.11566 6.93616 
1411 2 3.27 5.09501 8.80825 
1457 1 -0.265677 7.0536 6.95795 
1458 3 1.57329 6.99821 8.70604 
1459 3 -0.302793 8.80526 8.71623 
1460 2 1.56318 8.82932 6.95343 
1461 1 3.36144 6.97806 6.96265 
1463 4 3.37699 8.79913 8.76813 
1509 4 -0.2688 10.6049 6.95637 
2136 5 1.49077 8.77913 10.5679 
2137 2 3.32082 6.94264 10.624 
2185 3 -0.310558 10.5453 10.5786 
2083 2 -0.273972 5.14595 12.4926 
2084 3 1.57176 5.12126 10.6621 
2087 3 3.28626 5.10445 12.4471 
2133 2 -0.289862 6.99058 10.6095 
2134 2 1.47338 6.93705 12.5106 
2135 3 -0.304324 8.76465 12.5111 
2861 5 -0.315528 10.5918 14.3666 
2815 1 3.35813 8.79256 16.1842 
2139 5 3.36466 8.76348 12.4702 
2759 1 -0.359502 5.06076 16.1097 
2760 4 1.45294 5.08215 14.2992 
2763 2 3.37037 5.05546 16.1905 
2809 1 -0.33756 6.96713 14.3192 
2810 5 1.45773 6.9044 16.1425 
2811 4 -0.381282 8.78541 16.1442 
2812 1 1.46676 8.75273 14.351 
2813 5 3.35457 6.89902 14.3332 
3435 1 -0.407119 5.05664 19.8209 
3436 4 1.44959 5.03244 17.9722 
3439 1 3.3996 5.06037 19.7804 
3485 5 -0.416505 6.9082 17.9998 
3486 5 1.50056 6.87027 19.8357 
3487 2 -0.397323 8.80458 19.8642 
3488 5 1.4904 8.83431 18.0135 
3489 5 3.40472 6.88726 17.9764 
3491 2 3.425 8.83254 19.7658 
4112 2 1.50608 5.05902 21.6261 
4161 1 -0.409464 6.8643 21.5819 
4164 2 1.56638 8.843 21.4948 
4165 4 3.39963 6.95273 21.5379 
4111 3 -0.355401 5.03702 23.374 
4115 3 3.31228 5.1296 23.3704 
4162 5 1.54213 6.96968 23.3448 
4163 5 -0.365842 8.81261 23.3096 
4167 4 3.37023 8.81543 23.369 
4787 1 -0.351052 5.08968 27.0944 
4788 2 1.4922 5.10311 25.2268 
4791 3 3.3058 5.15287 27.0817 
4837 5 -0.386066 6.94595 25.2164 
4838 5 1.47543 7.00315 27.074 
4839 4 -0.392666 8.81674 27.0934 
4840 3 1.50914 8.80572 25.2383 
4841 1 3.31768 7.02448 25.2303 
4843 3 3.32798 8.79957 27.0298 
4889 2 -0.296914 10.6135 25.2274 
4890 3 1.46258 10.5462 27.0343 
4893 5 3.32484 10.6425 25.2393 
5463 2 -0.371037 5.03273 30.7586 
5464 5 1.4617 5.06287 28.905 
5467 2 3.34538 5.07947 30.8173 
5513 1 -0.403058 6.96515 28.895 
5514 5 1.44349 6.94227 30.7455 
5515 4 -0.393964 8.82688 30.7293 
5516 2 1.4285 8.85342 28.9369 
5517 5 3.37866 7.02132 28.9422 
5519 3 3.41152 8.80743 30.7722 
6140 1 1.44771 5.09239 32.5899 
6189 2 -0.369583 6.87731 32.5977 
6192 5 1.54197 8.77026 32.5547 
6193 3 3.364 6.95301 32.5224 
5565 1 -0.395093 10.578 28.9299 
5566 2 1.51462 10.6376 30.7827 
5569 5 3.38133 10.5869 28.9142 
6139 1 -0.365845 5.09796 34.3516 
6143 5 3.3461 5.11533 34.3362 
6190 1 1.50651 6.92923 34.3649 
7597 1 3.30339 10.6004 39.8555 
7593 2 -0.346744 10.6393 39.853 
6921 3 3.35546 10.6051 36.1678 
6191 5 -0.37245 8.72349 34.3925 
6195 4 3.38341 8.77136 34.3907 
6815 1 -0.391874 5.15719 38.0311 
6816 5 1.42722 5.13011 36.1927 
6819 5 3.39227 5.09874 37.9555 
6865 3 -0.350684 6.95219 36.2194 
6866 1 1.42217 7.0398 37.9984 
6867 4 -0.371648 8.75517 38.0167 
6868 4 1.53381 8.71767 36.1872 
6869 2 3.39257 7.00713 36.2036 
6871 3 3.34486 8.79045 37.9831 
7492 5 1.45768 5.1167 39.7858 
7541 4 -0.342993 7.00694 39.8192 
7544 1 1.45259 8.80697 39.858 
7545 5 3.31267 7.03018 39.8116 
6917 5 -0.357679 10.6225 36.2071 
6918 5 1.53795 10.6119 38.0205 
7491 1 -0.294797 5.16942 41.594 
7495 1 3.26389 5.10837 41.6363 
7542 1 1.47237 7.00162 41.6146 
7543 4 -0.341577 8.82486 41.6202 
7547 1 3.2683 8.88676 41.6477 
8167 4 -0.286334 5.15385 45.4166 
8168 1 1.53787 5.159 43.4731 
8171 1 3.28167 5.16828 45.3924 
8217 5 -0.26999 6.98619 43.479 
8218 1 1.47144 6.94102 45.3872 
8219 4 -0.28815 8.83208 45.3351 
8220 2 1.48485 8.85634 43.422 
8221 2 3.19852 6.97346 43.4642 
8223 5 3.27039 8.8099 45.3507 
7594 1 1.46517 10.6493 41.6393 
889 3 3.30615 14.2139 3.33757 
158 2 1.46381 10.6469 1.48049 
159 2 -0.302326 12.4537 1.51111 
160 2 1.461 12.5278 -0.338433 
161 5 3.34609 10.7017 -0.289696 
163 1 3.31968 12.5042 1.51776 
209 1 -0.299706 14.3239 -0.315034 
210 3 1.51616 14.2341 1.51716 
211 2 -0.332796 16.0498 1.52426 
212 2 1.51334 16.043 -0.361664 
213 2 3.3353 14.2233 -0.389563 
215 5 3.37305 16.0895 1.46813 
833 3 -0.313732 10.6477 3.31729 
836 3 1.5305 12.4572 3.32963 
837 2 3.34555 10.6698 3.27328 
885 4 -0.266555 14.2231 3.30732 
888 5 1.56342 16.1099 3.3307 
834 3 1.52007 10.6812 5.1326 
835 4 -0.239642 12.3992 5.10253 
839 3 3.30683 12.4486 5.15617 
886 1 1.57287 14.2233 5.15158 
887 5 -0.286386 16.1418 5.11277 
891 4 3.32388 16.116 5.19167 
1567 4 3.30455 16.1072 8.74389 
1510 1 1.51425 10.6269 8.74582 
1511 2 -0.259486 12.3999 8.80784 
1512 3 1.55022 12.4059 6.95346 
1513 2 3.36121 10.6423 6.95955 
1515 1 3.32524 12.4542 8.71688 
1561 5 -0.239168 14.2486 6.99124 
1562 1 1.57738 14.2569 8.76646 
1563 2 -0.233023 16.1075 8.81301 
1564 3 1.58366 16.1242 6.97076 
1565 3 3.29149 14.2636 6.96626 
2188 2 1.49929 12.4496 10.5796 
2189 5 3.35571 10.6715 10.5977 
2237 4 -0.269412 14.3297 10.5765 
2240 2 1.53826 16.1124 10.5793 
2241 2 3.28827 14.209 10.5854 
2919 4 3.26267 16.1423 16.1149 
2186 2 1.47574 10.5871 12.4652 
2187 5 -0.25879 12.4426 12.4532 
2916 4 1.47013 16.1087 14.3788 
2915 1 -0.300312 16.1212 16.1701 
2191 4 3.23387 12.4628 12.5142 
2914 3 1.4446 14.3046 16.1737 
2238 2 1.48555 14.321 12.4754 
2239 1 -0.320767 16.1145 12.4463 
2913 2 -0.294139 14.3343 14.3508 
2867 1 3.30849 12.4614 16.1846 
2243 5 3.3308 16.0969 12.521 
2917 2 3.29824 14.2584 14.4059 
2862 2 1.50303 10.6339 16.1982 
2863 2 -0.310877 12.49 16.2012 
2864 4 1.50091 12.5176 14.3833 
2865 5 3.27628 10.6424 14.346 
3537 2 -0.354241 10.6482 17.9887 
3538 4 1.52027 10.6931 19.7855 
3539 4 -0.30763 12.4917 19.7303 
3540 4 1.50429 12.4473 17.9943 
3541 4 3.36194 10.663 17.9664 
3543 3 3.3191 12.4254 19.7634 
3589 3 -0.279035 14.2937 17.9794 
3590 1 1.47626 14.3227 19.7399 
3591 3 -0.274772 16.1076 19.7437 
3592 3 1.43407 16.1805 17.9348 
3593 5 3.26234 14.3324 17.9359 
3595 1 3.24039 16.1891 19.7545 
4213 4 -0.346916 10.7035 21.5173 
4216 2 1.50469 12.4864 21.5277 
4217 1 3.3853 10.6653 21.5615 
4265 2 -0.283457 14.2926 21.5526 
4268 4 1.50225 16.0977 21.5747 
4269 2 3.26368 14.3014 21.5612 
4214 5 1.51172 10.6587 23.3467 
4215 1 -0.273893 12.4854 23.388 
4219 2 3.3269 12.5211 23.4107 
4266 4 1.47916 14.2842 23.4183 
4267 4 -0.335097 16.0851 23.3783 
4271 1 3.31228 16.0559 23.4438 
4947 4 3.38266 16.1522 27.0248 
4945 3 3.34433 14.2479 25.2972 
4891 2 -0.3309 12.4436 27.0536 
4892 4 1.47996 12.525 25.2547 
4944 5 1.53205 16.0732 25.2838 
4895 1 3.35335 12.4657 27.0205 
4941 1 -0.312295 14.3009 25.2293 
4942 3 1.4855 14.2533 27.0477 
4943 3 -0.369789 16.0517 27.0898 
6297 1 3.38349 14.257 32.5203 
6296 5 1.53276 16.0902 32.5371 
5567 2 -0.343056 12.394 30.7442 
5568 5 1.45994 12.3784 28.8452 
6293 3 -0.315838 14.2801 32.6492 
5571 4 3.41703 12.444 30.7357 
5617 3 -0.376752 14.2695 28.822 
5618 5 1.48474 14.2336 30.7167 
5619 2 -0.348673 16.1531 30.7024 
5620 5 1.51405 16.1417 28.8369 
5621 5 3.39928 14.2423 28.8491 
5623 4 3.39493 16.1287 30.7346 
6241 2 -0.331468 10.6243 32.5549 
6244 1 1.5474 12.5021 32.5779 
6245 2 3.38968 10.6584 32.5296 
6243 3 -0.269898 12.501 34.357 
6299 2 3.40266 16.0363 34.3566 
6242 5 1.5569 10.668 34.3915 
7596 3 1.49875 12.4986 39.8586 
6247 3 3.33666 12.5212 34.3687 
6294 1 1.55204 14.2644 34.3778 
6295 3 -0.347048 16.0944 34.3772 
6975 1 3.32666 16.0391 38.0348 
7649 1 3.36009 14.2592 39.8254 
7648 5 1.51204 16.051 39.8322 
6919 2 -0.303292 12.4877 38.053 
6920 1 1.58258 12.5081 36.1997 
7645 2 -0.322454 14.2639 39.882 
6923 4 3.31551 12.5102 38.0757 
6969 2 -0.264734 14.308 36.1518 
6970 3 1.52338 14.2508 38.0068 
6971 3 -0.292213 16.1023 37.9846 
6972 3 1.50549 16.0715 36.2332 
6973 4 3.30545 14.3049 36.2219 
8327 4 3.33575 16.0984 45.317 
7595 3 -0.313665 12.4264 41.663 
7599 5 3.34401 12.4592 41.6402 
7646 1 1.48399 14.2623 41.6725 
7647 1 -0.371744 16.0818 41.691 
7651 4 3.36808 16.0398 41.6673 
8269 4 -0.351716 10.641 43.4246 
8270 5 1.45079 10.6835 45.3084 
8271 2 -0.34739 12.4624 45.2989 
8272 3 1.48287 12.463 43.4534 
8273 3 3.33282 10.6875 43.4788 
8275 3 3.36857 12.4466 45.2499 
8321 2 -0.313831 14.2434 43.4583 
8322 1 1.50361 14.2443 45.3037 
8323 3 -0.287072 16.0287 45.3275 
8324 2 1.49853 16.0316 43.5096 
8325 2 3.3301 14.2752 43.504 
261 2 -0.328829 17.8387 -0.312342 
262 2 1.50226 17.9341 1.50319 
263 3 -0.351636 19.6989 1.51957 
264 5 1.4655 19.706 -0.384142 
265 1 3.35125 17.8757 -0.366952 
267 1 3.32288 19.6654 1.49285 
313 3 -0.332281 21.5931 -0.399745 
314 5 1.46878 21.5644 1.4866 
317 3 3.27994 21.5944 -0.384025 
937 4 -0.348608 17.9482 3.29563 
940 3 1.47844 19.686 3.32797 
941 4 3.38503 18.0021 3.35969 
989 4 -0.270925 21.5696 3.36499 
993 5 3.33858 21.5245 3.37364 
938 4 1.56547 17.9942 5.14374 
939 4 -0.255135 19.7313 5.10363 
943 1 3.35886 19.7139 5.1563 
990 4 1.48319 21.5077 5.14722 
1613 2 -0.203987 17.9475 6.96891 
1614 3 1.53862 17.9672 8.80162 
1615 3 -0.252944 19.7758 8.82009 
1616 1 1.51424 19.7704 6.99664 
1617 2 3.32001 17.9761 6.99192 
1619 1 3.34533 19.7758 8.81354 
1665 4 -0.271718 21.5299 6.97121 
1666 1 1.54374 21.5506 8.80823 
1669 5 3.38614 21.5506 6.95949 
2289 4 -0.303488 17.9382 10.6306 
2292 2 1.55868 19.7699 10.5767 
2293 4 3.35138 17.9533 10.5671 
2341 2 -0.24002 21.5849 10.6103 
2345 3 3.34315 21.6288 10.6091 
3021 1 3.39789 21.6588 14.2649 
2290 5 1.49505 17.9105 12.481 
2291 5 -0.293095 19.8119 12.4764 
3018 5 1.53706 21.6863 16.113 
3017 3 -0.245707 21.6925 14.2562 
2295 5 3.35312 19.8024 12.4738 
2971 2 3.31558 19.7847 16.0802 
2342 3 1.57305 21.657 12.4598 
2969 1 3.29902 17.9453 14.3411 
2965 2 -0.33888 17.8986 14.3312 
2966 3 1.48685 17.9325 16.1105 
2967 2 -0.331957 19.7926 16.1025 
2968 4 1.52167 19.8058 14.3238 
3641 1 -0.331292 17.9545 17.9644 
3642 1 1.44872 17.9127 19.8009 
3643 4 -0.319984 19.775 19.8039 
3644 5 1.50752 19.7537 17.9685 
3645 4 3.27365 17.8784 17.9568 
3647 2 3.31506 19.7043 19.7865 
3693 3 -0.317958 21.629 17.9992 
3694 2 1.51295 21.6234 19.8031 
3697 2 3.35562 21.6925 17.9808 
4317 4 -0.311236 17.9013 21.5472 
4320 1 1.50023 19.7746 21.5409 
4321 4 3.28059 17.9492 21.551 
4369 1 -0.290578 21.647 21.5654 
4373 2 3.31857 21.5591 21.5893 
4318 5 1.55399 17.9375 23.3808 
4319 5 -0.321108 19.7992 23.3705 
4323 1 3.30726 19.8101 23.4197 
4370 1 1.49421 21.5679 23.3687 
4993 5 -0.354115 17.9078 25.2859 
4994 1 1.51621 18.0114 27.0735 
4995 1 -0.300167 19.7769 27.0942 
4996 4 1.51992 19.804 25.2395 
4997 3 3.32651 17.989 25.2822 
4999 2 3.34614 19.7467 27.0767 
5045 4 -0.331596 21.6241 25.2312 
5046 5 1.48159 21.5792 27.1192 
5049 4 3.34336 21.5251 25.2267 
5669 3 -0.336266 17.9412 28.8359 
5670 2 1.55009 17.956 30.7063 
5671 1 -0.297031 19.73 30.6604 
5672 3 1.46502 19.7097 28.8992 
5673 1 3.35872 17.9669 28.8378 
5675 2 3.33035 19.7393 30.6613 
5721 3 -0.324323 21.6119 28.9563 
5722 3 1.52989 21.5727 30.6039 
5725 2 3.36321 21.5626 28.8739 
6345 3 -0.33869 17.9359 32.5244 
6348 2 1.5459 19.7464 32.5169 
6349 1 3.41089 17.9184 32.5451 
6397 5 -0.264201 21.6084 32.492 
6401 2 3.34039 21.5982 32.5068 
6346 5 1.51095 17.9253 34.3468 
6351 4 3.38896 19.7874 34.3493 
7753 4 3.37638 21.6042 39.933 
6347 1 -0.324765 19.7589 34.3777 
7749 2 -0.349088 21.5766 39.9494 
6398 2 1.56285 21.6182 34.3604 
7021 1 -0.341558 17.8896 36.1914 
7022 3 1.48558 17.894 38.0265 
7023 3 -0.333924 19.6951 37.9905 
7024 5 1.51831 19.7702 36.2074 
7025 5 3.37362 17.8871 36.2207 
7027 1 3.35298 19.7397 38.0908 
7073 2 -0.306437 21.6268 36.1241 
7074 5 1.5244 21.624 38.0317 
7077 1 3.37529 21.616 36.1801 
7697 4 -0.354191 17.8957 39.8642 
7700 5 1.49318 19.7403 39.8817 
7701 1 3.36066 17.8908 39.8422 
7698 5 1.49742 17.8645 41.7239 
7699 3 -0.398644 19.7411 41.7264 
7703 2 3.38379 19.7465 41.6957 
7750 1 1.49578 21.5946 41.736 
8373 4 -0.378011 17.8764 43.5141 
8374 2 1.47748 17.8286 45.2896 
8375 1 -0.38545 19.7851 45.314 
8376 5 1.45419 19.7629 43.5179 
8377 4 3.40362 17.8472 43.481 
8379 5 3.37098 19.744 45.2872 
8425 4 -0.357186 21.6213 43.4997 
8426 3 1.45615 21.6453 45.317 
8429 1 3.32391 21.6022 43.473 
315 1 -0.280638 23.485 1.52489 
316 3 1.47135 23.4176 -0.336097 
319 4 3.29501 23.4563 1.4665 
365 3 -0.255585 25.2177 -0.297977 
366 1 1.54015 25.2134 1.5014 
367 3 -0.268228 27.0471 1.52321 
368 5 1.51065 27.0653 -0.352699 
369 4 3.305 25.2409 -0.360351 
371 4 3.34233 27.0118 1.48493 
992 2 1.53449 23.435 3.35054 
1041 4 -0.285783 25.2543 3.28934 
1044 2 1.53277 27.0415 3.27696 
1045 3 3.39259 25.2291 3.29437 
991 4 -0.289022 23.3563 5.1025 
995 4 3.40431 23.4175 5.13883 
1042 5 1.55143 25.2653 5.14334 
1043 3 -0.230773 27.1097 5.16 
1047 2 3.37626 27.0661 5.20326 
1667 2 -0.236496 23.4171 8.8376 
1668 5 1.51468 23.3886 6.97266 
1671 2 3.34774 23.4014 8.8424 
1717 2 -0.239159 25.3171 7.01108 
1718 4 1.52597 25.2706 8.83893 
1719 1 -0.267507 27.0757 8.82043 
1720 3 1.5355 27.0981 7.05034 
1721 2 3.37433 25.2592 7.06801 
1723 1 3.34191 27.0418 8.83225 
2396 4 1.5589 27.0428 10.5644 
2397 2 3.36136 25.189 10.5842 
2343 3 -0.226865 23.4006 12.3848 
2344 4 1.55027 23.404 10.6218 
2347 4 3.37525 23.4017 12.4184 
2393 4 -0.252982 25.2591 10.6259 
2394 4 1.57544 25.1824 12.3872 
2395 2 -0.243604 27.0187 12.396 
3075 4 3.3646 26.9951 16.1295 
3073 1 3.35705 25.1833 14.249 
2399 5 3.35253 27.0466 12.3851 
3019 3 -0.30227 23.4305 16.1569 
3020 4 1.60286 23.4126 14.1988 
3023 4 3.43308 23.4366 16.1099 
3069 5 -0.263479 25.2093 14.2098 
3070 5 1.59613 25.1733 16.1519 
3071 5 -0.28572 27.0074 16.142 
3072 3 1.61858 27.0152 14.2401 
3695 1 -0.290941 23.4381 19.8282 
3696 3 1.51336 23.4272 18.0381 
3699 4 3.34439 23.4621 19.8216 
3745 3 -0.231346 25.2081 18.0457 
3746 1 1.55915 25.2019 19.7953 
3747 3 -0.281909 27.0304 19.8135 
3748 4 1.54755 27.0148 18.0598 
3749 1 3.38288 25.1803 17.987 
3751 2 3.44422 27.0343 19.7789 
4372 1 1.49479 23.455 21.5938 
4421 3 -0.28749 25.2223 21.6048 
4424 5 1.58601 27.0726 21.5677 
4425 3 3.39523 25.2308 21.5855 
4371 1 -0.287335 23.4209 23.3737 
4375 5 3.34192 23.3983 23.3657 
4422 1 1.5283 25.2455 23.4028 
4423 5 -0.269019 27.1169 23.4192 
4427 2 3.34208 27.0756 23.463 
5047 3 -0.343878 23.4567 27.0991 
5048 5 1.49571 23.4051 25.2314 
5051 4 3.31119 23.4355 27.0819 
5097 1 -0.28205 25.2326 25.2465 
5098 3 1.46989 25.2165 27.0632 
5099 3 -0.227781 27.0631 27.0361 
5100 1 1.51189 27.0765 25.2511 
5101 4 3.29427 25.2694 25.2517 
5103 5 3.30617 27.0768 27.0667 
5723 3 -0.283467 23.4525 30.6663 
5724 4 1.50191 23.4567 28.9032 
5727 3 3.3239 23.4089 30.6516 
5773 3 -0.279288 25.2366 28.8698 
5774 3 1.52391 25.2402 30.6779 
5775 1 -0.283567 27.0299 30.6974 
5776 2 1.46782 27.0562 28.8832 
5777 1 3.27552 25.2206 28.8652 
5779 1 3.2976 27.0616 30.6205 
6400 2 1.5774 23.4199 32.4494 
6449 1 -0.288814 25.1963 32.4645 
6452 2 1.50592 27.0384 32.459 
6453 4 3.34192 25.2578 32.4832 
6399 1 -0.292165 23.4176 34.3045 
6450 5 1.55701 25.2067 34.3175 
6451 2 -0.254701 27.0739 34.2964 
7805 3 3.37579 25.2366 39.9112 
6403 3 3.38219 23.396 34.3886 
7804 4 1.54275 27.0271 39.9204 
7801 1 -0.316193 25.2397 39.9291 
6455 3 3.31034 27.0406 34.3874 
7075 2 -0.330566 23.4634 38.0875 
7076 1 1.59121 23.3967 36.1848 
7079 3 3.37728 23.4505 38.0509 
7125 5 -0.228258 25.2368 36.2126 
7126 2 1.57891 25.2249 38.0782 
7127 2 -0.22806 27.0163 38.1161 
7128 1 1.63253 27.0622 36.2173 
7129 3 3.32689 25.2061 36.2193 
7131 1 3.31368 27.0146 38.0847 
7752 5 1.52934 23.4294 39.9366 
7751 3 -0.340142 23.4199 41.7337 
7755 4 3.34391 23.4268 41.7093 
7802 4 1.51176 25.2335 41.7001 
7803 1 -0.260854 27.0521 41.6628 
7807 1 3.31965 27.0177 41.6556 
8427 3 -0.285707 23.3903 45.2982 
8428 1 1.49797 23.3977 43.4421 
8431 2 3.24634 23.4004 45.2967 
8477 4 -0.287004 25.2113 43.4766 
8478 2 1.48731 25.1963 45.3105 
8479 3 -0.311497 27.0963 45.296 
8480 5 1.51936 27.0691 43.5071 
8481 1 3.30427 25.2362 43.4706 
8483 1 3.34238 27.0582 45.3126 
417 3 -0.261855 28.9171 -0.387154 
418 4 1.52405 28.8789 1.48463 
419 5 -0.2363 30.7159 1.54032 
420 1 1.52882 30.6756 -0.339428 
421 2 3.34411 28.8924 -0.328215 
423 3 3.30424 30.7306 1.50272 
469 5 -0.237744 32.5929 -0.315126 
470 3 1.57538 32.5585 1.54888 
473 5 3.30439 32.5681 -0.315971 
1093 1 -0.243249 28.8509 3.37439 
1096 2 1.54455 30.7256 3.40008 
1097 5 3.33709 28.8876 3.3435 
1145 4 -0.26267 32.5196 3.40331 
1149 1 3.37283 32.5177 3.32137 
471 4 -0.274462 34.3729 1.52625 
1094 1 1.50969 28.8749 5.21387 
1095 3 -0.29306 30.6821 5.19038 
1099 3 3.38777 30.7428 5.16885 
1146 1 1.57047 32.5099 5.16547 
1769 3 -0.26517 28.8344 6.98758 
1770 4 1.61098 28.8605 8.80628 
1771 5 -0.273666 30.6906 8.74262 
1772 2 1.60716 30.716 6.95223 
1773 4 3.33849 28.8508 6.98284 
1775 4 3.33844 30.7553 8.85765 
1821 1 -0.248909 32.521 6.92115 
1822 3 1.59177 32.5465 8.77938 
1825 3 3.37622 32.5581 6.99885 
1827 4 3.36588 34.3686 8.79241 
2445 5 -0.299659 28.8671 10.6165 
2501 1 3.32948 32.5834 10.5815 
2500 1 1.57222 34.3904 10.5695 
3179 2 3.34989 34.3949 16.1486 
2446 4 1.59203 28.8903 12.3927 
2447 5 -0.310457 30.7544 12.4239 
2448 3 1.61214 30.7338 10.6154 
2449 3 3.33658 28.9221 10.6087 
2451 4 3.35452 30.7053 12.3614 
2497 5 -0.24147 32.58 10.5941 
2498 4 1.6314 32.6382 12.4137 
3176 4 1.52981 34.3951 14.2991 
3121 5 -0.269674 28.8456 14.2202 
3122 5 1.55842 28.8822 16.1606 
3123 3 -0.295289 30.7899 16.1779 
3124 5 1.61234 30.7805 14.2907 
3125 2 3.36455 28.857 14.2697 
3127 2 3.40241 30.7946 16.1722 
3173 5 -0.301606 32.6156 14.3124 
3174 4 1.48544 32.6444 16.1716 
3177 2 3.35389 32.6594 14.3173 
2503 3 3.35336 34.416 12.4469 
3797 1 -0.285057 28.935 17.9956 
3798 2 1.49036 28.9439 19.7673 
3799 4 -0.2967 30.8367 19.7601 
3800 2 1.4736 30.7985 17.9723 
3801 5 3.39703 28.894 17.9962 
3803 4 3.33204 30.7433 19.7757 
3849 4 -0.32073 32.6241 17.9357 
3850 1 1.50422 32.6051 19.7875 
3853 5 3.35292 32.5953 17.974 
4473 4 -0.268509 28.9182 21.5829 
4476 2 1.55363 30.7514 21.568 
4477 4 3.35083 28.9253 21.597 
4525 1 -0.273936 32.6061 21.5899 
4529 4 3.31475 32.5795 21.5527 
3851 3 -0.284629 34.3481 19.7387 
3855 1 3.3214 34.4101 19.7775 
4528 3 1.51331 34.3408 21.5765 
4474 4 1.60904 28.9363 23.4655 
4475 5 -0.252468 30.7182 23.4541 
4479 1 3.30845 30.7414 23.4589 
4526 3 1.57522 32.5375 23.4021 
5149 1 -0.240574 28.9378 25.2923 
5150 3 1.50667 28.9384 27.042 
5151 3 -0.256584 30.7021 27.0747 
5152 3 1.59729 30.7305 25.306 
5153 4 3.35418 28.9354 25.2552 
5155 1 3.35556 30.7075 27.0875 
5201 5 -0.294098 32.5682 25.3125 
5202 4 1.5596 32.5381 27.1207 
5205 1 3.33922 32.4948 25.3079 
4527 1 -0.257339 34.3228 23.3948 
4531 5 3.37321 34.3746 23.4107 
5207 2 3.38751 34.398 27.1391 
5825 4 -0.286759 28.8857 28.8437 
5826 4 1.44016 28.8678 30.6415 
5827 1 -0.256439 30.6959 30.6118 
5828 4 1.48758 30.7148 28.8379 
5829 2 3.32801 28.8982 28.885 
5831 5 3.30991 30.7431 30.6615 
5877 3 -0.214371 32.564 28.8449 
5878 1 1.50636 32.6047 30.6544 
5881 2 3.35396 32.5767 28.8607 
6501 1 -0.241578 28.859 32.4971 
6504 2 1.4536 30.7082 32.4866 
6505 5 3.28765 28.8511 32.4757 
6553 5 -0.288036 32.6312 32.5116 
6557 1 3.32624 32.5579 32.4626 
6502 4 1.54007 28.8766 34.3629 
6503 4 -0.26582 30.6519 34.3703 
6507 2 3.31026 30.7314 34.3606 
6554 5 1.57793 32.5931 34.3492 
7177 5 -0.226604 28.8681 36.2146 
7178 4 1.5891 28.8464 38.0607 
7179 1 -0.23676 30.7218 38.0592 
7180 3 1.57619 30.689 36.2338 
7181 1 3.27762 28.8724 36.2016 
7183 4 3.27796 30.74 37.9865 
7229 5 -0.243999 32.5171 36.2112 
7230 1 1.57295 32.6027 38.0281 
7233 4 3.29264 32.5786 36.2291 
7853 1 -0.202744 28.8574 39.8527 
7856 5 1.56583 30.7327 39.8566 
7857 3 3.27474 28.8231 39.9237 
7905 1 -0.257951 32.5682 39.8202 
7909 4 3.29973 32.6245 39.8773 
7908 4 1.50111 34.3873 39.8684 
7854 1 1.5192 28.886 41.6799 
7855 2 -0.270768 30.7401 41.6733 
7859 1 3.31812 30.7494 41.7216 
7906 4 1.52047 32.5787 41.6602 
8529 4 -0.281892 28.9155 43.5046 
8530 4 1.49842 28.9203 45.3058 
8531 1 -0.240282 30.6991 45.2923 
8532 3 1.49004 30.7434 43.4444 
8533 2 3.33281 28.9032 43.4421 
8535 5 3.31609 30.7257 45.2654 
8581 4 -0.298008 32.5262 43.4625 
8582 1 1.47548 32.5178 45.2772 
8585 1 3.3068 32.5313 43.4452 
7907 1 -0.282917 34.3706 41.6382 
7911 1 3.30633 34.3882 41.614 
8584 5 1.49526 34.3709 43.4808 
8587 2 3.29878 34.3536 45.3636 
1253 5 3.35423 39.8513 3.3511 
472 3 1.54659 34.4516 -0.287363 
475 4 3.36398 34.4286 1.48613 
521 5 -0.265822 36.2515 -0.324329 
522 3 1.56953 36.2411 1.51868 
523 2 -0.191149 38.0932 1.53279 
524 1 1.61956 38.014 -0.339388 
525 3 3.32013 36.2072 -0.330588 
527 1 3.33188 37.9926 1.46742 
573 5 -0.222086 39.8694 -0.335635 
574 2 1.60418 39.8991 1.50046 
577 2 3.34702 39.9122 -0.3509 
1148 5 1.57245 34.3896 3.32997 
1197 3 -0.210243 36.2497 3.36906 
1200 4 1.56429 38.0247 3.3572 
1201 4 3.35106 36.2777 3.32789 
1249 1 -0.176062 39.8987 3.35372 
1147 1 -0.21613 34.3951 5.1531 
1151 2 3.39354 34.3991 5.15703 
1198 3 1.57402 36.2744 5.14893 
1199 1 -0.214989 38.0719 5.15315 
1203 4 3.36535 38.021 5.18174 
1250 3 1.53223 39.8518 5.19526 
1823 4 -0.224401 34.4278 8.75986 
1824 5 1.57047 34.3972 6.97202 
1929 2 3.40836 39.8898 6.95361 
1873 3 -0.219523 36.264 6.90776 
1874 3 1.54835 36.2713 8.78571 
1875 2 -0.265322 38.0253 8.75472 
1876 1 1.57952 38.019 6.93292 
1877 1 3.37385 36.2409 6.97933 
1879 1 3.34178 38.0328 8.76813 
1925 4 -0.281759 39.858 6.93657 
1926 5 1.53873 39.8541 8.76867 
2549 3 -0.219767 36.1839 10.585 
2552 3 1.51796 38.0329 10.6139 
2553 2 3.31049 36.1993 10.5946 
2601 4 -0.322917 39.8601 10.6568 
2605 1 3.38173 39.8375 10.5832 
2499 1 -0.28014 34.3826 12.4853 
3281 3 3.40248 39.8101 14.3275 
3278 5 1.51485 39.8411 16.0592 
3229 2 3.40569 36.1777 14.2735 
2550 5 1.49603 36.1954 12.4635 
2551 3 -0.313215 38.0182 12.5131 
3228 2 1.51832 37.9481 14.3524 
3227 4 -0.400574 37.9578 16.1072 
2555 4 3.39454 37.9783 12.4776 
3226 2 1.52757 36.1385 16.1162 
2602 5 1.58981 39.8028 12.5041 
3225 4 -0.349488 36.1619 14.3591 
3175 1 -0.335716 34.4125 16.1598 
3277 3 -0.368542 39.7649 14.2927 
3231 1 3.4293 37.9902 16.0945 
4633 5 3.38729 39.857 21.643 
3852 3 1.4822 34.4278 17.9845 
4629 3 -0.355252 39.8721 21.6495 
3901 3 -0.356464 36.151 17.9285 
3902 1 1.50176 36.1896 19.7514 
3903 4 -0.364091 38.0636 19.7709 
3904 5 1.49269 37.9492 17.9174 
3905 4 3.36497 36.1818 17.9918 
3907 1 3.39584 38.0281 19.7554 
3953 3 -0.393997 39.7955 17.8906 
3954 5 1.48094 39.8494 19.7723 
3957 5 3.41662 39.8524 17.9137 
4581 5 3.3293 36.269 21.5819 
4577 5 -0.267324 36.2115 21.5934 
4580 1 1.4982 38.0836 21.6414 
5309 4 3.33262 39.9563 25.205 
5306 4 1.60333 39.9745 27.0484 
4578 1 1.51539 36.2454 23.4222 
4579 3 -0.288754 38.1204 23.3864 
4583 1 3.39404 38.0816 23.4456 
4630 4 1.49657 39.9312 23.4279 
5203 1 -0.284257 34.4431 27.1515 
5204 5 1.56893 34.4024 25.2904 
5305 2 -0.28887 39.982 25.2365 
5253 2 -0.28151 36.1682 25.2417 
5254 2 1.58587 36.2217 27.1603 
5255 5 -0.242658 38.0533 27.1236 
5256 5 1.55125 38.0836 25.215 
5257 2 3.41046 36.2747 25.2742 
5259 2 3.33931 38.1045 27.116 
5879 3 -0.2164 34.4712 30.6697 
5880 1 1.51943 34.4105 28.9015 
5883 1 3.31066 34.4174 30.6388 
5929 1 -0.26013 36.2578 28.949 
5930 3 1.59557 36.2515 30.6637 
5931 1 -0.227159 38.0363 30.6911 
5932 1 1.60724 38.0834 28.9476 
5933 3 3.35748 36.2539 28.9206 
5935 1 3.33142 38.0935 30.6993 
5981 5 -0.187902 39.9592 28.9203 
5982 1 1.57471 39.914 30.7362 
5985 4 3.30542 39.9347 28.9058 
6556 1 1.62194 34.4469 32.444 
6605 2 -0.216998 36.2231 32.4779 
6608 4 1.54313 38.081 32.4767 
6609 3 3.32142 36.2958 32.4706 
6657 1 -0.215129 39.8966 32.482 
6661 3 3.28636 39.8929 32.5029 
6555 2 -0.242858 34.496 34.3279 
6606 4 1.58516 36.2205 34.3201 
6607 2 -0.229811 38.0394 34.3155 
6611 2 3.31859 38.1135 34.2986 
6658 3 1.50007 39.9113 34.302 
8009 1 -0.329253 39.9111 39.8485 
6559 2 3.35204 34.4528 34.361 
7961 2 3.33072 36.1921 39.8327 
7960 5 1.49947 38.0812 39.8018 
7957 1 -0.282084 36.2207 39.8443 
8013 4 3.3643 39.9326 39.8046 
7231 2 -0.227613 34.424 38.0369 
7232 3 1.55774 34.4714 36.2158 
7235 1 3.29539 34.4083 38.0567 
7281 1 -0.246045 36.2511 36.1646 
7282 4 1.52791 36.2072 38.0195 
7283 2 -0.328332 38.0759 37.9845 
7284 5 1.54748 38.0868 36.1906 
7285 2 3.36933 36.2507 36.2345 
7287 3 3.3956 38.0776 38.0369 
7333 3 -0.288887 39.923 36.1658 
7334 2 1.52991 39.9207 38.0077 
7337 1 3.37106 39.882 36.1924 
8689 4 3.38054 39.8583 43.5644 
8686 2 1.55584 39.8695 45.3331 
7958 1 1.44998 36.2062 41.6374 
7959 3 -0.233415 38.0862 41.6918 
7963 5 3.357 38.0743 41.6623 
8010 1 1.52612 39.8948 41.6714 
8583 2 -0.275946 34.4445 45.32 
8685 3 -0.274911 39.8618 43.4912 