LAMMPS FCC Model for CoCuFeNiPd

  8788 atoms

 5 atom types

-1.2151204467749379e+00 4.6215120446773646e+01 xlo xhi
-1.2274788693491190e+00 4.6227478869350719e+01 ylo yhi
-1.2226176983633918e+00 4.6222617698364239e+01 zlo zhi

Atoms
id type x y z
1 2 -0.0196555 -0.19159 -0.347743 
2 4 1.86542 -0.141314 1.51099 
3 3 0.00474379 1.69233 1.47969 
4 5 1.8606 1.63287 -0.348804 
5 5 3.76212 -0.154458 -0.368168 
7 2 3.78841 1.686 1.50485 
53 1 -0.00327888 3.46805 -0.339311 
54 3 1.88709 3.43095 1.44636 
57 3 3.81353 3.37265 -0.367326 
677 4 0.00454741 -0.109367 3.19213 
680 2 1.93473 1.69786 3.24583 
681 4 3.77221 -0.110333 3.25437 
729 1 0.0229744 3.44866 3.21953 
733 1 3.8028 3.44915 3.34398 
678 2 1.93142 -0.114745 5.09347 
679 5 0.0630578 1.64066 5.0425 
683 2 3.76784 1.64088 5.10317 
730 3 1.95796 3.44196 5.13212 
1353 3 0.0493574 -0.103249 6.98369 
1354 2 1.90653 -0.108934 8.78818 
1355 3 0.0326044 1.62699 8.77639 
1356 2 1.93389 1.62666 6.95705 
1357 3 3.78806 -0.0966008 6.95166 
1359 2 3.78309 1.63764 8.81501 
1405 2 0.0907718 3.38221 6.9701 
1406 2 1.91582 3.34334 8.85352 
1409 2 3.78166 3.38787 6.93889 
2029 5 -0.0059065 -0.104687 10.6373 
2030 2 1.90884 -0.16685 12.49 
2031 2 0.0408931 1.55955 12.6143 
2758 2 1.85356 3.41938 16.2197 
2757 2 0.0333479 3.36207 14.4195 
2035 3 3.78056 1.61097 12.463 
2761 5 3.72101 3.39499 14.3558 
2082 2 1.91441 3.35559 12.5256 
2711 3 3.76075 1.63689 16.238 
2705 2 0.0169197 -0.277244 14.3345 
2706 3 1.86464 -0.271405 16.2037 
2707 2 0.00230552 1.46115 16.1768 
2708 2 1.86511 1.58151 14.4114 
2709 5 3.72917 -0.141348 14.361 
2081 5 0.0322084 3.30969 10.7087 
2032 1 1.94801 1.59583 10.6838 
2085 2 3.75628 3.37757 10.7108 
2033 2 3.7576 -0.146055 10.6617 
3381 3 0.0284574 -0.312609 18.0878 
3382 1 1.83574 -0.29448 19.8984 
3383 2 -0.0255404 1.52881 19.9518 
3384 5 1.80429 1.57078 18.0395 
3385 5 3.72938 -0.204684 18.0511 
3387 2 3.75256 1.6663 19.8792 
3433 2 -0.0241429 3.4365 18.0268 
3434 5 1.82661 3.45185 19.8937 
3437 2 3.7288 3.45396 18.0146 
4057 5 -0.011553 -0.287362 21.7687 
4060 2 1.86826 1.62051 21.7158 
4061 5 3.70306 -0.213996 21.6789 
4109 2 -0.0584695 3.47339 21.7002 
4113 2 3.73943 3.45744 21.6997 
4058 2 1.87355 -0.269781 23.5623 
4059 5 -0.016175 1.64539 23.549 
4063 2 3.75884 1.63485 23.4871 
4110 2 1.85918 3.49956 23.449 
4733 2 -0.0476213 -0.263739 25.2972 
4734 5 1.87426 -0.251942 27.0417 
4735 2 0.0256097 1.69429 26.9977 
4736 2 1.88258 1.6559 25.2631 
4737 2 3.77214 -0.216664 25.255 
4739 5 3.7554 1.63146 27.1249 
4785 2 0.0370217 3.57017 25.2885 
4786 2 1.85787 3.53814 27.0901 
4789 5 3.72724 3.49333 25.2692 
5409 5 -0.0320112 -0.245284 28.8331 
5410 5 1.84979 -0.259015 30.6686 
5411 2 -0.0145654 1.68317 30.6804 
5412 2 1.81054 1.69735 28.8627 
5413 2 3.76431 -0.263555 28.8835 
5415 5 3.74344 1.64043 30.6463 
5461 2 0.0116618 3.55763 28.8568 
5462 2 1.85743 3.51485 30.6548 
5465 2 3.75371 3.52039 28.8779 
6085 5 -0.0184032 -0.223615 32.5405 
6088 2 1.83648 1.65094 32.535 
6089 5 3.73329 -0.232592 32.5567 
6137 5 0.00519508 3.47561 32.5356 
6141 5 3.73918 3.47251 32.5255 
7437 1 -0.013955 -0.249672 39.738 
7440 1 1.82694 1.58091 39.741 
7493 5 3.72581 3.38384 39.7199 
7489 1 0.0386057 3.41021 39.7238 
7441 5 3.71676 -0.194963 39.7712 
6761 2 0.00819842 -0.173854 36.2063 
6762 2 1.83315 -0.210859 37.9822 
6763 1 -0.00519508 1.57789 38.0403 
6764 2 1.82971 1.60823 36.1991 
6765 2 3.73776 -0.235657 36.1931 
6767 2 3.74714 1.588 37.9072 
6813 2 0.0109918 3.39491 36.1862 
6814 2 1.83993 3.39627 37.9592 
6817 2 3.74525 3.43695 36.1997 
6091 5 3.73107 1.61655 34.4114 
6138 2 1.86846 3.46635 34.395 
6086 2 1.84514 -0.24342 34.3924 
6087 2 0.00246557 1.63124 34.3791 
7438 3 1.85097 -0.284571 41.5306 
7439 5 0.00139574 1.56238 41.518 
7443 2 3.72305 1.61301 41.5685 
7490 2 1.86132 3.42823 41.5282 
8113 5 -0.0290476 -0.267289 43.4037 
8114 1 1.86256 -0.233938 45.228 
8115 5 -0.0781107 1.61669 45.228 
8116 2 1.89323 1.5983 43.377 
8117 5 3.71221 -0.188351 43.4058 
8119 3 3.77807 1.63155 45.235 
8165 5 -0.0326338 3.47245 43.3676 
8166 5 1.9026 3.43722 45.2064 
8169 2 3.7727 3.39246 43.3799 
55 5 -0.0220644 5.32756 1.47041 
56 5 1.88696 5.28691 -0.397996 
59 5 3.79552 5.22828 1.45522 
105 1 -0.0657 7.03694 -0.474825 
106 1 1.90561 7.06626 1.43543 
107 3 -0.063328 8.57039 1.41638 
108 3 1.84334 8.62412 -0.395141 
109 3 3.78192 7.08809 -0.365726 
111 3 3.7982 8.64461 1.54035 
732 5 1.92801 5.2617 3.32779 
781 3 -0.0570949 7.06206 3.3619 
784 5 1.94697 8.6003 3.40082 
785 3 3.87814 6.93944 3.39516 
833 5 -0.0430618 10.2655 3.33057 
161 5 3.69672 10.375 -0.35647 
837 3 3.7313 10.3854 3.36805 
158 3 1.88004 10.3237 1.50028 
157 5 -0.0195607 10.3871 -0.366533 
731 5 0.0181582 5.22301 5.14547 
735 3 3.7997 5.18881 5.18188 
782 4 1.96683 6.91498 5.28904 
783 4 0.0690799 8.60853 5.30141 
787 4 3.76734 8.64467 5.23769 
1407 5 0.023086 5.13017 8.85119 
1408 4 1.9381 5.15463 6.98577 
1411 5 3.7485 5.13857 8.84419 
1457 4 0.0670994 6.92926 7.0457 
1458 4 1.91692 6.89028 8.85106 
1459 5 0.0285889 8.64803 8.91402 
1460 4 1.92993 8.62819 7.05488 
1461 4 3.76315 6.9111 7.00952 
1463 4 3.69003 8.60446 8.86098 
1509 4 0.0840058 10.3474 7.02321 
834 4 1.90566 10.3786 5.25236 
1510 4 1.91285 10.3823 8.86121 
1513 4 3.66147 10.3506 7.04365 
2083 2 0.0530247 5.11014 12.5799 
2185 4 0.0533771 10.4451 10.7073 
2087 4 3.72055 5.1719 12.4983 
2134 4 1.89764 6.86059 12.547 
2135 5 0.0154503 8.65325 12.5436 
2861 4 0.0257861 10.3842 14.4137 
2815 4 3.58658 8.58312 16.1511 
2139 1 3.64503 8.60468 12.5343 
2759 4 0.00430878 5.16211 16.198 
2760 4 1.84187 5.17562 14.3726 
2763 1 3.68597 5.19005 16.186 
2809 1 0.00351895 6.8721 14.4026 
2810 1 1.81934 6.86423 16.1815 
2811 1 0.0124743 8.60828 16.1915 
2812 1 1.84344 8.59359 14.3717 
2813 4 3.66179 6.85228 14.3432 
2186 4 1.86855 10.3861 12.5259 
2862 1 1.79265 10.3568 16.1801 
2865 1 3.58438 10.3554 14.3429 
2133 2 0.0372304 6.82863 10.7388 
2084 1 1.91695 5.15617 10.723 
2189 4 3.64552 10.3549 10.686 
2136 4 1.91309 8.61453 10.7008 
2137 4 3.69042 6.89088 10.7125 
3435 4 -0.0408026 5.22817 19.8469 
3436 4 1.82018 5.18954 18.009 
3439 4 3.69815 5.2026 19.8537 
3485 1 -0.00747002 6.88077 18.0103 
3486 1 1.82386 6.88519 19.8278 
3487 1 -0.00780266 8.62546 19.8074 
3488 1 1.80519 8.60009 17.9967 
3489 1 3.60347 6.84438 18.0037 
3491 1 3.57438 8.61112 19.8272 
4112 4 1.84242 5.25297 21.6818 
4161 4 0.0154394 6.94358 21.6271 
4164 1 1.82222 8.64919 21.6307 
4165 1 3.66064 6.92529 21.6475 
3541 1 3.52418 10.3901 17.9766 
4217 4 3.57799 10.4039 21.6504 
3538 4 1.78496 10.3717 19.8121 
3537 4 0.000169977 10.3568 18.0073 
4213 4 -0.0179548 10.3723 21.6069 
4111 4 0.0258115 5.28636 23.465 
4115 4 3.69768 5.26112 23.4587 
4162 1 1.867 6.98034 23.4594 
4163 1 0.022484 8.68235 23.4282 
4167 1 3.66915 8.68024 23.4508 
4787 1 0.0380738 5.33763 27.0744 
4788 1 1.8689 5.30901 25.2723 
4791 1 3.73495 5.28277 27.1007 
4837 1 0.0437756 7.01053 25.2617 
4838 1 1.89781 6.99917 27.0807 
4839 1 0.0344408 8.69192 27.0705 
4840 1 1.86425 8.70566 25.2649 
4841 1 3.70555 6.97145 25.2769 
4843 1 3.69463 8.70601 27.0856 
4890 1 1.839 10.4376 27.0644 
4889 1 0.00706301 10.3959 25.2486 
4893 1 3.63665 10.4292 25.2637 
4214 1 1.81181 10.4012 23.4409 
5463 1 0.0406977 5.30381 30.6733 
5464 1 1.89934 5.29777 28.8846 
5467 1 3.75624 5.26537 30.6639 
5513 1 0.0713614 6.98648 28.8879 
5514 1 1.90016 6.97587 30.6783 
5515 2 0.04833 8.69838 30.7329 
5516 1 1.87584 8.70065 28.8754 
5517 1 3.7328 6.98636 28.8892 
5519 2 3.72588 8.71183 30.7077 
6140 2 1.88925 5.26259 32.5178 
6189 2 0.0232419 6.96586 32.557 
6192 2 1.89393 8.71116 32.5453 
6193 2 3.75443 6.95105 32.5247 
6241 2 -0.0119025 10.5093 32.5154 
5566 2 1.85032 10.5124 30.7074 
6245 2 3.70976 10.4859 32.5368 
5565 2 0.0154938 10.4751 28.8869 
5569 2 3.67855 10.4684 28.8864 
6242 2 1.85118 10.5184 34.3252 
6191 2 -0.00292667 8.74844 34.3439 
6195 1 3.75868 8.70331 34.3483 
7597 2 3.67226 10.5741 39.7692 
6921 2 3.67961 10.5267 36.1101 
7545 2 3.69278 6.95811 39.7421 
6918 2 1.82684 10.5456 37.9402 
6815 2 0.0233204 5.21552 37.9494 
6816 2 1.91055 5.2207 36.1786 
6819 1 3.74637 5.22162 37.9414 
6865 2 0.00450297 7.00582 36.1646 
6866 2 1.87942 6.9804 37.9445 
6867 2 -0.00472349 8.79165 37.9358 
6868 2 1.87522 8.74565 36.1286 
6869 1 3.79421 6.96378 36.1498 
6871 2 3.70624 8.72792 37.9416 
7492 1 1.86352 5.19782 39.7111 
7541 2 0.00396089 7.0078 39.7122 
7544 2 1.83544 8.78587 39.7423 
6917 1 -0.0134182 10.5232 36.1289 
7593 1 -0.0300981 10.5517 39.7567 
6143 1 3.78398 5.21669 34.3929 
6139 2 0.0175213 5.23736 34.412 
6190 2 1.9192 6.96758 34.373 
7491 2 0.0128486 5.24048 41.4729 
7495 2 3.73765 5.15905 41.5536 
7542 2 1.87112 6.97159 41.506 
7543 2 -0.0431351 8.73866 41.523 
7547 2 3.68556 8.78351 41.5426 
8167 2 -0.0563158 5.25025 45.1917 
8168 2 1.89394 5.22784 43.3341 
8171 2 3.79474 5.19262 45.248 
8217 2 -0.0506359 6.93424 43.3096 
8218 2 1.87135 6.98442 45.1539 
8219 2 -0.03293 8.68082 45.126 
8220 2 1.81831 8.72053 43.3099 
8221 2 3.70356 6.96308 43.3506 
8223 2 3.67407 8.74031 45.1544 
7594 2 1.79877 10.5434 41.5594 
8273 2 3.6855 10.5005 43.3741 
8270 2 1.80757 10.4701 45.1716 
8269 2 -0.0342709 10.5145 43.3492 
889 2 3.63746 13.8694 3.37767 
885 2 -0.0012516 13.8711 3.38162 
159 2 8.37236e-05 12.152 1.53028 
160 2 1.83222 12.1748 -0.354195 
836 1 1.87275 12.0721 3.35916 
163 1 3.65435 12.0937 1.56599 
209 2 -0.0425831 13.8785 -0.338344 
210 1 1.84939 13.8466 1.55349 
211 2 -0.0539365 15.6033 1.4941 
212 2 1.79846 15.6229 -0.30759 
213 2 3.62305 13.8657 -0.315951 
215 2 3.61345 15.7044 1.58222 
888 2 1.81178 15.6315 3.36083 
1564 2 1.73507 15.6346 7.01295 
835 2 0.0313342 12.0933 5.19436 
839 1 3.62554 12.1138 5.19147 
886 1 1.82705 13.8729 5.20287 
887 1 -0.0875641 15.6099 5.22082 
891 1 3.64188 15.6688 5.1649 
1567 1 3.60088 15.6495 8.83658 
1565 1 3.59625 13.9379 7.01098 
1511 1 0.0524338 12.0653 8.83181 
1512 1 1.86503 12.133 7.03348 
1563 1 -0.073084 15.6118 8.86346 
1515 1 3.60811 12.1553 8.84972 
1561 1 -0.018385 13.8297 7.00801 
1562 1 1.7727 13.8715 8.84272 
2919 1 3.489 15.7454 16.1927 
2187 3 0.00631993 12.0995 12.538 
2916 3 1.70492 15.6597 14.3437 
2915 1 -0.0726074 15.6575 16.1679 
2191 1 3.5727 12.1272 12.5268 
2914 1 1.73969 13.933 16.1754 
2238 1 1.7674 13.8809 12.5027 
2239 1 -0.0691398 15.6049 12.4594 
2913 1 -0.0060463 13.8825 14.3385 
2867 1 3.50906 12.1403 16.1585 
2243 3 3.49895 15.6802 12.4958 
2917 1 3.50474 13.9399 14.3483 
2864 1 1.78481 12.1319 14.3563 
2863 1 0.0202557 12.1534 16.2178 
2188 1 1.84737 12.1239 10.682 
2237 3 -0.0392914 13.7705 10.6787 
2240 1 1.71261 15.6065 10.6544 
2241 1 3.54877 13.9178 10.6481 
4268 1 1.7317 15.6668 21.6436 
4265 1 -0.0370006 13.9006 21.6252 
3539 1 -0.00487058 12.1378 19.8141 
3540 1 1.7504 12.1467 17.9967 
4269 1 3.53722 13.9353 21.6285 
3543 1 3.48609 12.1685 19.8027 
3589 1 -0.0194975 13.9299 18.017 
3590 1 1.73255 13.9424 19.8186 
3591 3 -0.0780313 15.6759 19.8299 
3592 1 1.71957 15.7204 17.99 
3593 1 3.4784 13.9358 17.9748 
3595 1 3.52696 15.7125 19.7736 
4216 1 1.76299 12.1473 21.624 
4943 1 -0.0877784 15.5811 27.0274 
4942 1 1.773 13.8965 27.0107 
4215 1 -0.014766 12.1237 23.4263 
4219 1 3.57137 12.1656 23.4469 
4266 4 1.75452 13.8835 23.4342 
4267 4 -0.0656879 15.6161 23.4384 
4271 4 3.5662 15.6416 23.447 
4947 4 3.59758 15.6249 27.0598 
4945 4 3.59826 13.908 25.249 
4891 4 -0.00850387 12.1633 27.0231 
4892 3 1.79138 12.1446 25.2326 
4944 4 1.73639 15.6172 25.2048 
4895 4 3.63205 12.1842 27.0507 
4941 3 -0.0516417 13.8616 25.2116 
6295 3 -0.0748622 15.6009 34.3175 
6297 4 3.68367 13.9302 32.5015 
6296 4 1.80249 15.5651 32.52 
5567 3 -0.018644 12.2754 30.6894 
5568 3 1.81554 12.2406 28.8558 
6293 4 -0.0399653 13.9045 32.5374 
5571 1 3.70031 12.2264 30.7096 
5617 3 -0.048585 13.8966 28.8393 
5618 1 1.83418 13.9013 30.6823 
5619 3 -0.0790653 15.526 30.6992 
5620 3 1.80197 15.5509 28.8639 
5621 4 3.6472 13.8875 28.8698 
5623 3 3.66429 15.6367 30.7077 
6294 3 1.80979 13.9366 34.3365 
6244 3 1.83782 12.2641 32.5233 
6299 3 3.67811 15.6125 34.2968 
6243 4 -0.0154288 12.2441 34.3509 
6247 4 3.67339 12.2878 34.3122 
6969 4 -0.053527 13.9378 36.1491 
6973 4 3.65863 13.953 36.1056 
6971 1 -0.10478 15.6357 37.9841 
7596 3 1.78279 12.2861 39.7607 
6970 1 1.7615 13.9488 37.9502 
6972 1 1.77573 15.6016 36.1366 
6975 3 3.65937 15.5451 37.9602 
7649 3 3.64367 13.9221 39.796 
7648 1 1.74933 15.5768 39.7946 
6919 1 -0.0402128 12.2291 37.938 
6920 1 1.80419 12.2633 36.1326 
7645 1 -0.0792361 13.9135 39.7527 
6923 1 3.63536 12.3359 37.9389 
8324 1 1.76072 15.6151 43.4109 
8327 3 3.63716 15.6053 45.2328 
7595 1 -0.0444662 12.2596 41.5634 
7599 1 3.67728 12.2557 41.6025 
7646 1 1.79072 13.917 41.6061 
7647 4 -0.0673986 15.6088 41.5594 
7651 1 3.61276 15.6012 41.6054 
8325 1 3.6446 13.9174 43.4277 
8322 1 1.80555 13.9241 45.2261 
8271 1 -0.0215393 12.2474 45.1992 
8272 1 1.80821 12.2509 43.4097 
8323 3 -0.0863051 15.6049 45.2602 
8275 1 3.67196 12.201 45.2099 
8321 1 -0.0507441 13.9325 43.405 
261 3 -0.10307 17.4719 -0.310542 
262 2 1.75493 17.4694 1.51361 
263 5 -0.119323 19.3458 1.51285 
264 3 1.70384 19.3425 -0.363319 
265 2 3.59916 17.5254 -0.345315 
267 5 3.5884 19.3194 1.52666 
313 5 -0.20358 21.2905 -0.351175 
314 5 1.69514 21.2949 1.55344 
317 5 3.59121 21.224 -0.325717 
937 5 -0.138786 17.4611 3.35085 
940 3 1.77854 19.3486 3.36223 
941 1 3.6383 17.5146 3.38355 
989 3 -0.177129 21.3063 3.30418 
993 5 3.68297 21.2794 3.33256 
938 5 1.76682 17.483 5.15985 
939 5 -0.160181 19.4292 5.12601 
943 3 3.6692 19.3485 5.10651 
990 5 1.7509 21.2963 5.09684 
1613 3 -0.136637 17.473 6.95354 
1614 5 1.69328 17.4881 8.88732 
1615 5 -0.157014 19.4333 8.84224 
1616 5 1.73995 19.4307 6.99561 
1617 5 3.65814 17.5051 7.00758 
1619 5 3.66111 19.4298 8.88607 
1665 3 -0.144662 21.3157 7.03331 
1666 3 1.74912 21.2942 8.83274 
1669 5 3.69502 21.2776 6.95685 
2968 3 1.66713 19.4352 14.3545 
3021 5 3.6466 21.3405 14.2896 
2290 5 1.68891 17.5193 12.4305 
2291 5 -0.197565 19.4209 12.462 
3018 5 1.69845 21.3234 16.1348 
3017 5 -0.223673 21.3133 14.3289 
2295 5 3.6021 19.4162 12.4952 
2971 5 3.59119 19.4171 16.1482 
2342 3 1.70802 21.2901 12.5078 
2969 5 3.54457 17.5209 14.337 
2965 5 -0.166115 17.5371 14.3544 
2966 1 1.69013 17.5233 16.1556 
2967 3 -0.2572 19.41 16.1387 
2289 3 -0.165843 17.5173 10.6814 
2345 5 3.66761 21.3199 10.7196 
2293 2 3.5994 17.5276 10.6652 
2341 5 -0.180669 21.328 10.6635 
2292 3 1.72043 19.4778 10.6512 
3641 5 -0.188437 17.5144 17.9757 
3642 3 1.71729 17.4673 19.8017 
3643 5 -0.196524 19.4104 19.8406 
3644 5 1.69368 19.4037 17.9731 
3645 3 3.52878 17.492 17.9867 
3647 5 3.54457 19.4421 19.8256 
3693 5 -0.239201 21.3126 17.9584 
3694 3 1.72303 21.3251 19.82 
3697 3 3.59562 21.3664 17.9574 
4317 5 -0.132634 17.499 21.6603 
4320 3 1.67737 19.4155 21.6306 
4321 5 3.57177 17.498 21.626 
4369 5 -0.212028 21.3216 21.6578 
4373 3 3.55869 21.3188 21.6334 
4318 3 1.70845 17.5231 23.4514 
4319 3 -0.156586 19.3774 23.4309 
4323 5 3.58989 19.4236 23.4152 
4370 5 1.69247 21.3036 23.485 
4993 5 -0.150256 17.4887 25.2231 
4994 5 1.73911 17.4624 27.0932 
4995 3 -0.205377 19.3316 27.0896 
4996 3 1.68018 19.3448 25.2753 
4997 5 3.58488 17.4956 25.2416 
4999 3 3.59764 19.3422 27.0833 
5045 5 -0.234854 21.2356 25.2679 
5046 5 1.67714 21.2468 27.0715 
5049 5 3.63812 21.2731 25.3025 
5669 5 -0.182326 17.3995 28.9067 
5670 5 1.77563 17.372 30.723 
5671 3 -0.185964 19.3016 30.7527 
5672 5 1.7214 19.356 28.9632 
5673 3 3.61635 17.4715 28.8933 
5675 3 3.66101 19.2736 30.7196 
5721 5 -0.194139 21.2393 28.9674 
5722 3 1.70405 21.3006 30.7321 
5725 5 3.62975 21.1987 28.9521 
6345 3 -0.132705 17.3858 32.4854 
6348 5 1.75383 19.3405 32.4867 
6349 1 3.68537 17.4354 32.528 
6397 5 -0.169272 21.2686 32.5147 
6401 5 3.6522 21.2278 32.462 
6346 5 1.76177 17.4087 34.2853 
6351 3 3.67068 19.3344 34.327 
6347 3 -0.145028 19.2983 34.2978 
6398 5 1.74675 21.3031 34.3506 
7753 3 3.57692 21.2443 39.8261 
7701 5 3.63674 17.3873 39.7622 
7749 5 -0.235998 21.2888 39.8125 
7021 2 -0.134639 17.4294 36.1151 
7022 5 1.69661 17.4234 37.987 
7023 3 -0.180317 19.3107 37.9834 
7024 5 1.74803 19.3417 36.1382 
7025 5 3.67418 17.4432 36.1768 
7027 3 3.62079 19.3865 38.0264 
7073 5 -0.188579 21.2752 36.1423 
7074 5 1.72544 21.2517 37.9717 
7077 3 3.61918 21.2088 36.1651 
7697 3 -0.125919 17.4401 39.8565 
7700 5 1.66479 19.3538 39.8382 
7698 3 1.71562 17.3679 41.5605 
7699 3 -0.209483 19.3452 41.6026 
7703 5 3.63952 19.3577 41.5444 
7750 3 1.69561 21.304 41.5991 
8373 5 -0.16386 17.4388 43.3575 
8374 5 1.72771 17.4499 45.3052 
8375 5 -0.222533 19.3689 45.2744 
8376 5 1.70964 19.3457 43.35 
8377 5 3.61275 17.4444 43.4102 
8379 3 3.60086 19.3334 45.2965 
8425 5 -0.245966 21.2548 43.3639 
8426 5 1.72522 21.2631 45.2294 
8429 5 3.58648 21.2836 43.3883 
315 3 -0.174584 23.203 1.61332 
316 5 1.70795 23.1952 -0.338588 
319 3 3.66723 23.1518 1.51483 
365 3 -0.178172 25.049 -0.331038 
366 5 1.71543 25.0477 1.51054 
367 5 -0.162698 27.0405 1.51347 
368 5 1.74073 26.9781 -0.355371 
369 5 3.61033 25.0779 -0.407649 
371 3 3.67832 27.0001 1.44805 
992 3 1.76228 23.1926 3.29597 
1041 3 -0.146024 25.0655 3.30409 
1044 5 1.80033 27.0473 3.28774 
1045 5 3.67539 25.0599 3.30387 
991 5 -0.140407 23.1822 5.09671 
995 3 3.67533 23.1808 5.13241 
1042 5 1.76034 25.0741 5.12467 
1043 5 -0.120594 27.0181 5.10115 
1047 3 3.69507 27.0107 5.14816 
1667 5 -0.144618 23.222 8.7798 
1668 5 1.77888 23.1896 7.00731 
1671 5 3.70125 23.193 8.85199 
1717 3 -0.129943 25.1023 7.00921 
1718 3 1.77838 25.1056 8.82946 
1719 5 -0.172351 27.0075 8.76654 
1720 5 1.75848 27.0214 6.98443 
1721 5 3.70198 25.1085 6.96224 
1723 5 3.71491 27.0089 8.84652 
2396 5 1.77421 27.0506 10.6042 
2343 3 -0.223693 23.2041 12.4758 
2347 3 3.74082 23.204 12.4873 
3072 3 1.74916 27.0772 14.2772 
2394 5 1.7538 25.126 12.4779 
2395 5 -0.196047 27.0462 12.5157 
3075 3 3.55343 26.9867 16.114 
3073 5 3.6575 25.0659 14.3465 
2399 5 3.64534 27.0604 12.4679 
3019 3 -0.234111 23.2744 16.1686 
3020 5 1.70367 23.1942 14.2614 
3023 3 3.66324 23.1704 16.1475 
3069 5 -0.246399 25.1048 14.2804 
3070 5 1.67148 25.1265 16.1371 
3071 5 -0.202743 27.0307 16.1072 
2344 5 1.76039 23.2017 10.7028 
2397 2 3.71465 25.0635 10.6954 
2393 5 -0.210868 25.1299 10.6407 
3695 3 -0.223532 23.2268 19.7738 
3696 5 1.6906 23.192 17.9895 
3699 3 3.55919 23.1284 19.7856 
3745 3 -0.244664 25.115 17.9852 
3746 5 1.65221 25.1571 19.7702 
3747 3 -0.236559 27.0166 19.7569 
3748 3 1.63247 27.0053 18.0017 
3749 5 3.59825 25.1433 17.9416 
3751 3 3.62729 27.0324 19.8138 
4372 5 1.70169 23.1878 21.6075 
4421 5 -0.27015 25.1107 21.6368 
4424 5 1.68139 27.0619 21.667 
4425 5 3.5809 25.1178 21.6405 
4371 3 -0.22529 23.2484 23.5256 
4375 3 3.59213 23.1337 23.4985 
4422 5 1.65789 25.0669 23.5181 
4423 5 -0.241902 27.054 23.539 
4427 3 3.60373 27.0587 23.4658 
5047 3 -0.158967 23.1712 27.1036 
5048 3 1.64309 23.1994 25.2866 
5051 5 3.60179 23.1627 27.1619 
5097 3 -0.204229 25.0629 25.3636 
5098 5 1.69791 25.0569 27.1619 
5099 3 -0.142909 26.9729 27.1207 
5100 5 1.70729 27.0325 25.346 
5101 5 3.59521 25.0695 25.2786 
5103 2 3.6461 26.9924 27.1594 
5723 3 -0.119032 23.166 30.7289 
5724 3 1.65937 23.1039 28.9467 
5727 5 3.63922 23.1662 30.6816 
5773 5 -0.238537 25.048 28.8995 
5774 5 1.72478 25.0592 30.6655 
5775 5 -0.227524 27.0122 30.6887 
5776 3 1.69919 27.036 28.88 
5777 2 3.66281 25.1015 28.9153 
5779 5 3.64959 27.0014 30.7042 
6400 3 1.68902 23.158 32.4845 
6449 5 -0.215334 25.077 32.5472 
6452 5 1.71361 27.0179 32.5233 
6453 5 3.70761 25.0408 32.5375 
6451 3 -0.251684 27.0157 34.3248 
6455 5 3.64533 27.0296 34.3453 
6450 5 1.68905 25.021 34.3436 
6399 3 -0.186074 23.1693 34.358 
7805 3 3.5572 25.0942 39.773 
7752 5 1.68618 23.2201 39.7652 
7804 5 1.66144 26.9686 39.8018 
7801 5 -0.222341 25.1087 39.7244 
7131 5 3.59468 26.9874 38.0047 
7075 3 -0.209297 23.1873 37.9601 
7076 3 1.66265 23.1847 36.2139 
7079 5 3.60443 23.1669 37.9668 
7125 5 -0.234356 25.0715 36.1938 
7126 3 1.67297 25.0631 37.9375 
7127 3 -0.208742 27.0366 38.0001 
7128 5 1.64941 26.9976 36.1602 
7129 5 3.65469 25.0684 36.1907 
6403 5 3.64641 23.1409 34.3802 
7751 5 -0.199211 23.2273 41.6233 
7755 5 3.55308 23.193 41.5784 
7802 3 1.65895 25.0984 41.635 
7803 3 -0.205636 26.9672 41.6011 
7807 5 3.59628 26.9973 41.6169 
8427 5 -0.188407 23.2558 45.1979 
8428 3 1.69158 23.2298 43.4151 
8431 3 3.54345 23.1843 45.2054 
8477 3 -0.171151 25.1234 43.3952 
8478 3 1.68717 25.0574 45.2468 
8479 5 -0.214845 26.9463 45.3119 
8480 5 1.66772 26.9739 43.4524 
8481 5 3.56783 25.0767 43.4716 
8483 3 3.59699 27.0195 45.2125 
417 3 -0.175701 28.9321 -0.341888 
418 3 1.71083 28.9411 1.3891 
419 5 -0.108813 30.8133 1.48594 
420 3 1.75015 30.8494 -0.316634 
421 5 3.61483 28.9377 -0.344615 
423 3 3.58066 30.8708 1.39218 
469 5 -0.111981 32.763 -0.346071 
470 3 1.77551 32.7333 1.43079 
473 2 3.5119 32.7679 -0.369042 
1093 3 -0.0911563 28.9116 3.29525 
1096 5 1.76781 30.8452 3.28941 
1097 5 3.58253 28.9485 3.25088 
1145 3 -0.0518274 32.7689 3.31318 
1149 5 3.64638 32.7631 3.24518 
1094 3 1.76172 28.9091 5.13413 
1095 5 -0.137453 30.8236 5.10139 
1099 3 3.64985 30.8864 5.09195 
1146 3 1.79302 32.7662 5.09631 
1769 3 -0.0905152 28.9436 6.95296 
1770 3 1.7648 28.9722 8.81042 
1771 5 -0.143814 30.823 8.74788 
1772 5 1.81994 30.811 6.91162 
1773 5 3.654 28.8986 6.9726 
1775 3 3.59844 30.7776 8.87514 
1821 5 -0.1441 32.7885 6.89276 
1822 5 1.80488 32.735 8.77351 
1825 3 3.59698 32.7313 6.86699 
2449 3 3.6517 28.9533 10.5843 
2445 5 -0.157307 28.9334 10.6208 
2497 5 -0.168965 32.7201 10.6072 
2448 3 1.76614 30.7388 10.6117 
2501 2 3.58655 32.7121 10.6097 
2446 3 1.72988 28.9042 12.4957 
2447 5 -0.198644 30.8169 12.4581 
2451 5 3.61191 30.7353 12.4223 
2498 5 1.78215 32.7303 12.4672 
3121 3 -0.182858 28.915 14.2616 
3122 5 1.70192 28.8745 16.1484 
3123 5 -0.22337 30.7938 16.1314 
3124 5 1.74809 30.7929 14.3211 
3125 3 3.56584 28.8609 14.3157 
3127 3 3.51908 30.8321 16.1806 
3173 5 -0.227499 32.7316 14.3182 
3174 3 1.69863 32.6859 16.1586 
3177 3 3.54226 32.7306 14.4106 
3797 3 -0.191939 28.9366 17.999 
3798 5 1.61743 28.8966 19.7945 
3799 3 -0.203497 30.7944 19.777 
3800 3 1.63825 30.8109 17.9563 
3801 5 3.58303 28.8449 17.9823 
3803 5 3.58697 30.7823 19.7991 
3849 5 -0.205533 32.715 17.9637 
3850 5 1.66814 32.7275 19.8161 
3853 5 3.55479 32.6826 17.9371 
4473 3 -0.234104 28.9276 21.6807 
4476 5 1.64615 30.8007 21.6578 
4477 3 3.59023 28.8304 21.6748 
4525 5 -0.229694 32.77 21.671 
4529 3 3.57269 32.7745 21.6403 
4474 3 1.68249 28.9089 23.4664 
4475 5 -0.25377 30.8122 23.5266 
4479 5 3.50925 30.859 23.4767 
4526 3 1.68941 32.7866 23.4527 
5149 5 -0.225331 28.9612 25.4091 
5150 3 1.6976 28.9115 27.1566 
5151 2 -0.186958 30.9505 27.172 
5152 5 1.6789 30.8793 25.3649 
5153 5 3.59153 28.879 25.3035 
5155 5 3.56445 30.8751 27.1847 
5201 5 -0.217301 32.8082 25.3332 
5202 3 1.7022 32.806 27.186 
5205 3 3.51741 32.7941 25.3273 
5825 5 -0.152008 28.9265 28.854 
5826 3 1.71176 28.9283 30.7132 
5827 5 -0.125345 30.8803 30.6514 
5828 3 1.65491 30.903 28.8578 
5829 5 3.57524 28.9028 28.9128 
5831 5 3.49615 30.8742 30.67 
5877 1 -0.116164 32.8446 28.8923 
5878 3 1.66332 32.8093 30.6778 
5881 2 3.49781 32.8363 28.9633 
6501 5 -0.22232 28.9174 32.5111 
6504 3 1.71773 30.848 32.463 
6505 3 3.58532 28.9377 32.4668 
6553 5 -0.164759 32.8581 32.4835 
6557 3 3.44062 32.831 32.4164 
6502 5 1.7262 28.9682 34.3222 
6554 5 1.75544 32.7989 34.2949 
6507 2 3.47666 30.8423 34.3167 
6503 5 -0.177785 30.8867 34.3584 
7177 5 -0.203569 28.9614 36.1644 
7178 5 1.72253 28.9565 38.0119 
7179 2 -0.142588 30.8779 38.0128 
7180 3 1.7471 30.869 36.2079 
7181 3 3.53923 28.9619 36.1431 
7183 2 3.48901 30.8965 37.9919 
7229 5 -0.11466 32.7792 36.1832 
7230 2 1.6908 32.836 38.0664 
7233 2 3.45372 32.8196 36.2432 
7853 3 -0.180979 28.8785 39.8001 
7856 5 1.69341 30.8933 39.8265 
7857 3 3.61608 28.9511 39.8803 
7905 3 -0.153354 32.8394 39.839 
7909 2 3.52622 32.8722 39.8485 
7854 5 1.67551 28.9365 41.6279 
7855 5 -0.2287 30.8931 41.6451 
7859 5 3.59479 30.8716 41.704 
7906 5 1.68957 32.8325 41.6904 
8529 5 -0.245524 28.9241 43.4559 
8530 5 1.70871 28.9545 45.2948 
8531 5 -0.17537 30.8417 45.2964 
8532 2 1.71063 30.8866 43.4764 
8533 2 3.57478 28.9354 43.491 
8535 2 3.52736 30.8878 45.2547 
8581 2 -0.178538 32.7617 43.5159 
8582 2 1.74574 32.7637 45.2702 
8585 2 3.54674 32.8192 43.5054 
1200 1 1.81689 38.4549 3.26395 
472 2 1.79531 34.688 -0.348018 
475 2 3.57525 34.7237 1.39726 
521 2 0.0260006 36.5927 -0.331559 
522 2 1.8006 36.6403 1.46739 
523 2 0.00614762 38.4503 1.50566 
524 1 1.79798 38.4943 -0.34617 
525 2 3.54756 36.6332 -0.355674 
527 1 3.56731 38.4851 1.45127 
471 5 -0.0760554 34.6471 1.46992 
1201 1 3.5759 36.6232 3.24174 
1197 3 -0.016532 36.5771 3.31611 
1148 5 1.79829 34.6823 3.27775 
577 1 3.58921 40.2545 -0.340147 
574 1 1.81903 40.2591 1.48993 
1253 3 3.59301 40.2429 3.2463 
573 2 0.028734 40.289 -0.332011 
1249 3 0.0188408 40.2922 3.2399 
1827 3 3.59934 34.6845 8.76702 
1147 3 -0.064804 34.6559 5.01252 
1151 3 3.63595 34.7084 5.05778 
1198 3 1.83091 36.5817 5.04774 
1199 5 -0.0355762 38.4756 5.0695 
1203 2 3.58408 38.4528 5.05945 
2552 3 1.71419 38.4719 10.6331 
1823 3 -0.16589 34.6607 8.78066 
1824 5 1.81131 34.6634 6.87502 
2549 3 -0.13832 36.5314 10.5678 
1873 5 -0.101127 36.5224 6.88042 
1874 5 1.77332 36.5546 8.78902 
1875 5 -0.110318 38.4407 8.77005 
1876 2 1.80502 38.4811 6.87755 
1877 3 3.58665 36.597 6.87281 
1879 5 3.61438 38.4631 8.80082 
2500 5 1.74981 34.6628 10.6226 
1250 1 1.80996 40.2877 5.04769 
3179 5 3.5231 34.6644 16.2196 
3176 5 1.69436 34.6448 14.3397 
2503 3 3.56926 34.6794 12.5217 
3231 4 3.5621 38.5446 16.1963 
2499 2 -0.164521 34.6539 12.4573 
3175 5 -0.197624 34.6586 16.1935 
2553 2 3.63385 36.5678 10.6743 
3229 5 3.55659 36.6314 14.3692 
2550 5 1.68692 36.5721 12.4634 
2551 5 -0.132064 38.4668 12.4876 
3228 2 1.72998 38.5221 14.4089 
3227 5 -0.159235 38.4876 16.1983 
2555 5 3.61932 38.4794 12.4665 
3226 2 1.69997 36.634 16.2199 
3225 2 -0.147988 36.5748 14.3657 
3855 5 3.5613 34.6667 19.7593 
4580 2 1.68222 38.5191 21.5349 
3852 2 1.64351 34.6923 17.9886 
4581 5 3.5261 36.5911 21.5913 
3901 2 -0.154907 36.5968 18.0014 
3902 2 1.69839 36.5896 19.7334 
3903 2 -0.139751 38.5173 19.7408 
3904 2 1.74473 38.5387 18 
3905 2 3.5482 36.6428 17.958 
3907 2 3.5552 38.5112 19.7426 
4577 5 -0.121233 36.5646 21.5873 
3851 2 -0.206489 34.6749 19.7622 
4528 2 1.6612 34.6444 21.6288 
5207 2 3.54859 34.6983 27.1509 
5259 2 3.54718 38.4649 27.1493 
5257 3 3.5537 36.5429 25.3304 
4578 2 1.65089 36.5449 23.4878 
4579 2 -0.0795625 38.5143 23.3832 
4583 5 3.52603 38.4556 23.465 
4527 3 -0.174218 34.6347 23.4641 
5203 3 -0.176394 34.667 27.2034 
5204 5 1.68041 34.6596 25.3538 
4531 5 3.53495 34.6463 23.4674 
5253 2 -0.126025 36.5044 25.3631 
5254 2 1.71622 36.5784 27.169 
5255 2 -0.0875637 38.4824 27.2042 
5256 5 1.68515 38.4688 25.328 
5879 2 -0.145421 34.7406 30.6864 
5880 2 1.66696 34.7022 28.9047 
5883 2 3.44772 34.7189 30.6942 
5929 2 -0.134925 36.5937 28.9295 
5930 2 1.71227 36.6015 30.7146 
5931 2 -0.102006 38.409 30.7432 
5932 2 1.76571 38.4678 28.9551 
5933 2 3.53367 36.5984 28.9526 
5935 2 3.58648 38.4721 30.7217 
5981 2 -0.0370524 40.2667 28.9805 
6559 3 3.48618 34.7412 34.2808 
6607 2 -0.0696469 38.3921 34.2896 
6556 3 1.71604 34.7156 32.4902 
6605 2 -0.125896 36.5404 32.5027 
6608 2 1.74835 38.462 32.5055 
6609 2 3.51431 36.6201 32.5025 
6657 3 -0.0304258 40.2682 32.5027 
6606 2 1.72811 36.5729 34.2863 
6555 3 -0.124505 34.7423 34.2659 
6611 2 3.55209 38.4386 34.3577 
6658 2 1.77462 40.2759 34.3428 
6661 2 3.62242 40.2892 32.5583 
7337 2 3.58511 40.2429 36.1881 
8009 3 -0.0491392 40.2482 39.7704 
7961 2 3.51245 36.5732 39.8276 
7960 2 1.73481 38.4339 39.8097 
7957 4 -0.0623614 36.5657 39.8476 
7908 2 1.68755 34.7167 39.8428 
7231 3 -0.109377 34.6845 38.0835 
7232 5 1.69525 34.7537 36.1838 
7235 3 3.48987 34.7432 38.0573 
7281 2 -0.0967644 36.6242 36.1305 
7282 2 1.6886 36.5904 38.0231 
7283 4 -0.0733139 38.4452 38.024 
7284 2 1.73749 38.4274 36.185 
7285 2 3.52728 36.6151 36.1824 
7287 2 3.54918 38.4281 38.0034 
7333 2 -0.0472958 40.2071 36.2022 
7334 4 1.77645 40.2479 38.0112 
8013 2 3.60183 40.2643 39.8151 
7911 2 3.52263 34.7435 41.6813 
8587 2 3.51562 34.7112 45.2832 
8584 2 1.6994 34.6872 43.4985 
7958 2 1.69993 36.5506 41.6578 
7959 3 -0.0279778 38.426 41.5893 
7963 2 3.54271 38.4029 41.6496 
8637 2 3.52191 36.5743 43.4816 
8583 2 -0.0554334 34.6512 45.3484 
7907 3 -0.140342 34.6404 41.6301 
8639 2 3.53368 38.472 45.2777 
8633 2 -0.0372287 36.544 43.4897 
8634 2 1.7611 36.5937 45.3059 
8635 3 0.026215 38.4341 45.3321 
8636 2 1.73468 38.4336 43.4624 
8685 2 0.00268736 40.2937 43.4927 
8010 2 1.78365 40.2733 41.6081 
575 4 0.00544568 42.051 1.53078 
576 2 1.84402 42.0495 -0.356704 
579 2 3.64698 42.0367 1.47677 
625 2 0.0378118 43.7962 -0.297865 
626 2 1.86098 43.828 1.50843 
627 3 -0.0143006 45.5653 1.50351 
628 2 1.85079 45.5554 -0.337255 
629 2 3.69748 43.8353 -0.343012 
631 4 3.74051 45.5785 1.51424 
1252 4 1.83907 42.0283 3.27145 
1301 2 0.000272551 43.8328 3.29464 
1304 2 1.87149 45.6044 3.27883 
1305 4 3.6954 43.8301 3.26112 